 Gaussian 09, Revision D.01,

 ----------------------------------------------------
 #N B3LYP/6-311+G(2d,p) OPT(tight,maxcycles=300) FREQ
 ----------------------------------------------------

 --------
 gly-ser1
 --------
 Symbolic Z-matrix:
 Charge = -1 Multiplicity = 1

 SCF Done:  E(RB3LYP) =  -606.596521426     A.U. after   17 cycles
 SCF Done:  E(RB3LYP) =  -606.613507256     A.U. after   13 cycles
 SCF Done:  E(RB3LYP) =  -606.617622078     A.U. after   13 cycles
 SCF Done:  E(RB3LYP) =  -606.625681842     A.U. after   13 cycles
 SCF Done:  E(RB3LYP) =  -606.632098421     A.U. after   12 cycles
 SCF Done:  E(RB3LYP) =  -606.633625430     A.U. after   14 cycles
 SCF Done:  E(RB3LYP) =  -606.635865903     A.U. after   13 cycles
 SCF Done:  E(RB3LYP) =  -606.635087040     A.U. after   13 cycles
 SCF Done:  E(RB3LYP) =  -606.636293242     A.U. after   10 cycles
 SCF Done:  E(RB3LYP) =  -606.636758843     A.U. after   11 cycles
 SCF Done:  E(RB3LYP) =  -606.651837081     A.U. after    8 cycles
 SCF Done:  E(RB3LYP) =  -606.651837215     A.U. after    7 cycles
 SCF Done:  E(RB3LYP) =  -606.651837303     A.U. after    7 cycles
 SCF Done:  E(RB3LYP) =  -606.651837316     A.U. after    6 cycles
 SCF Done:  E(RB3LYP) =  -606.651837318     A.U. after    5 cycles
 SCF Done:  E(RB3LYP) =  -606.651837317     A.U. after    5 cycles
 SCF Done:  E(RB3LYP) =  -606.651837314     A.U. after    5 cycles
 SCF Done:  E(RB3LYP) =  -606.651837313     A.U. after    4 cycles
 Optimization completed.
    -- Stationary point found.
 Normal termination of Gaussian 09 at Tue Mar 31 17:18:28 2020.

 ----------------------------------------------------------------------
 #N Geom=AllCheck Guess=TCheck SCRF=Check GenChk RB3LYP/6-311+G(2d,p) F
 req
 ----------------------------------------------------------------------

 Structure from the checkpoint file:  "gly-ser14.chk"
 --------
 gly-ser1
 --------
 Charge = -1 Multiplicity = 1

 SCF Done:  E(RB3LYP) =  -606.651837313     A.U. after    1 cycles

  Exact polarizability: 121.577  -0.983 103.278   0.183  -5.518  80.351
 Approx polarizability: 152.757  -1.456 147.213   2.025 -11.632 121.296

                      1                      2                      3
                      A                      A                      A
 Frequencies --     55.5407                58.0388                75.8372
 Red. masses --      4.6459                 6.6788                 7.6845
 Frc consts  --      0.0084                 0.0133                 0.0260
 IR Inten    --      5.4368                 1.6066                 2.3453

                      4                      5                      6
                      A                      A                      A
 Frequencies --    106.5685               113.6045               152.0324
 Red. masses --      4.0194                 2.9191                 3.6473
 Frc consts  --      0.0269                 0.0222                 0.0497
 IR Inten    --     17.3495                10.3094                 2.7684

                      7                      8                      9
                      A                      A                      A
 Frequencies --    220.3821               231.8693               253.3970
 Red. masses --      2.6171                 1.7188                 3.1074
 Frc consts  --      0.0749                 0.0544                 0.1176
 IR Inten    --      0.1779                29.9958                44.1421

                     10                     11                     12
                      A                      A                      A
 Frequencies --    280.5597               358.4544               467.9081
 Red. masses --      7.2453                 4.7368                 5.4291
 Frc consts  --      0.3360                 0.3586                 0.7003
 IR Inten    --      8.8577                 3.3234                 7.2363

                     13                     14                     15
                      A                      A                      A
 Frequencies --    511.2301               549.0329               577.9447
 Red. masses --      5.8824                 4.1726                 3.5186
 Frc consts  --      0.9058                 0.7411                 0.6925
 IR Inten    --     11.4863                 7.2938                 5.3617

                     16                     17                     18
                      A                      A                      A
 Frequencies --    617.0936               665.8570               691.8323
 Red. masses --      3.6826                 2.7531                 1.2533
 Frc consts  --      0.8262                 0.7192                 0.3534
 IR Inten    --     28.7028                17.2258                42.4423

                     19                     20                     21
                      A                      A                      A
 Frequencies --    746.8290               806.8934               820.6079
 Red. masses --      1.1378                 2.3465                 2.0641
 Frc consts  --      0.3739                 0.9001                 0.8189
 IR Inten    --    107.9420                37.7160               112.9033

                     22                     23                     24
                      A                      A                      A
 Frequencies --    866.3544               891.8688               954.6585
 Red. masses --      5.0269                 3.1239                 2.5834
 Frc consts  --      2.2230                 1.4640                 1.3872
 IR Inten    --     23.6633                12.0709                 9.7618

                     25                     26                     27
                      A                      A                      A
 Frequencies --   1005.6739              1016.0486              1074.4046
 Red. masses --      2.1969                 2.4835                 3.0087
 Frc consts  --      1.3091                 1.5106                 2.0463
 IR Inten    --     12.9338                87.8285                16.0827

                     28                     29                     30
                      A                      A                      A
 Frequencies --   1081.2493              1128.4670              1160.6051
 Red. masses --      3.6003                 2.3606                 1.3231
 Frc consts  --      2.4800                 1.7711                 1.0500
 IR Inten    --     16.3536                15.4583                 1.9290

                     31                     32                     33
                      A                      A                      A
 Frequencies --   1206.4723              1261.1247              1289.3498
 Red. masses --      1.5922                 1.3839                 1.4401
 Frc consts  --      1.3655                 1.2968                 1.4105
 IR Inten    --     35.5040                28.3148                 7.0701

                     34                     35                     36
                      A                      A                      A
 Frequencies --   1308.8788              1340.5701              1364.6273
 Red. masses --      1.4099                 2.2480                 1.6358
 Frc consts  --      1.4231                 2.3803                 1.7948
 IR Inten    --     13.3773               153.4580                27.3775

                     37                     38                     39
                      A                      A                      A
 Frequencies --   1393.4974              1395.6376              1457.5276
 Red. masses --      1.3946                 1.4952                 1.2511
 Frc consts  --      1.5956                 1.7159                 1.5660
 IR Inten    --     24.9444                54.4715               156.0054

                     40                     41                     42
                      A                      A                      A
 Frequencies --   1485.5215              1496.3692              1533.4844
 Red. masses --      1.0865                 1.0799                 2.4483
 Frc consts  --      1.4126                 1.4246                 3.3921
 IR Inten    --     28.4996                10.3047               390.3384

                     43                     44                     45
                      A                      A                      A
 Frequencies --   1656.6686              1668.5886              1692.6842
 Red. masses --      1.1542                 6.8885                 8.0504
 Frc consts  --      1.8663                11.2999                13.5901
 IR Inten    --    129.6771               420.5559               310.2070

                     46                     47                     48
                      A                      A                      A
 Frequencies --   2981.5491              2986.9496              3014.5423
 Red. masses --      1.0715                 1.0695                 1.0818
 Frc consts  --      5.6123                 5.6218                 5.7921
 IR Inten    --     55.3728                64.5318                55.6656

                     49                     50                     51
                      A                      A                      A
 Frequencies --   3049.9890              3085.1439              3496.0605
 Red. masses --      1.0917                 1.0923                 1.0493
 Frc consts  --      5.9832                 6.1253                 7.5562
 IR Inten    --     20.1805                36.0305                 3.6006

                     52                     53                     54
                      A                      A                      A
 Frequencies --   3524.5313              3574.1406              3576.7538
 Red. masses --      1.0758                 1.0655                 1.0938
 Frc consts  --      7.8739                 8.0197                 8.2448
 IR Inten    --    103.2688               214.2608                 8.3209

 - Thermochemistry -
 -------------------
 Temperature   298.150 Kelvin.  Pressure   1.00000 Atm.
 Atom     1 has atomic number  7 and mass  14.00307

 Molecular mass:   161.05623 amu.
 Principal axes and moments of inertia in atomic units:
                           1         2         3
     Eigenvalues --  1085.179582577.191483199.06551
           X            0.99924   0.03799  -0.00847
           Y           -0.03810   0.99920  -0.01256
           Z            0.00799   0.01287   0.99989
 This molecule is an asymmetric top.
 Rotational symmetry number  1.
 Warning -- assumption of classical behavior for rotation
           may cause significant error
 Rotational temperatures (Kelvin)      0.07982     0.03361     0.02707
 Rotational constants (GHZ):           1.66308     0.70027     0.56415
 Zero-point vibrational energy     409012.2 (Joules/Mol)
                                   97.75627 (Kcal/Mol)
 Warning -- explicit consideration of  16 degrees of freedom as
           vibrations may cause significant error
 Vibrational temperatures:     79.91    83.50   109.11   153.33   163.45
          (Kelvin)            218.74   317.08   333.61   364.58   403.66
                              515.74   673.21   735.55   789.93   831.53
                              887.86   958.02   995.39  1074.52  1160.94
                             1180.67  1246.49  1283.20  1373.54  1446.94
                             1461.87  1545.83  1555.67  1623.61  1669.85
                             1735.84  1814.47  1855.08  1883.18  1928.78
                             1963.39  2004.93  2008.01  2097.05  2137.33
                             2152.94  2206.34  2383.57  2400.72  2435.39
                             4289.78  4297.55  4337.25  4388.25  4438.83
                             5030.05  5071.01  5142.38  5146.14

 Zero-point correction=                           0.155785 (Hartree/Particle)
 Thermal correction to Energy=                    0.167338
 Thermal correction to Enthalpy=                  0.168283
 Thermal correction to Gibbs Free Energy=         0.117224
 Sum of electronic and zero-point Energies=           -606.496053
 Sum of electronic and thermal Energies=              -606.484499
 Sum of electronic and thermal Enthalpies=            -606.483555
 Sum of electronic and thermal Free Energies=         -606.534613

                     E (Thermal)             CV                S
                      KCal/Mol        Cal/Mol-Kelvin    Cal/Mol-Kelvin
 Total                  105.006             40.657            107.461
 Electronic               0.000              0.000              0.000
 Translational            0.889              2.981             41.139
 Rotational               0.889              2.981             30.571
 Vibrational            103.229             34.695             35.751
 Vibration     1          0.596              1.975              4.610
 Vibration     2          0.596              1.974              4.523
 Vibration     3          0.599              1.965              3.996
 Vibration     4          0.605              1.944              3.330
 Vibration     5          0.607              1.938              3.206
 Vibration     6          0.619              1.900              2.647
 Vibration     7          0.647              1.810              1.956
 Vibration     8          0.653              1.792              1.864
 Vibration     9          0.665              1.757              1.707
 Vibration    10          0.680              1.710              1.530
 Vibration    11          0.733              1.558              1.129
 Vibration    12          0.825              1.321              0.743
 Vibration    13          0.866              1.225              0.631
 Vibration    14          0.904              1.142              0.546
 Vibration    15          0.934              1.079              0.489
 Vibration    16          0.977              0.996              0.421

 Optimization completed.
    -- Stationary point found.
 Normal termination of Gaussian 09 at Tue Mar 31 17:33:50 2020.
 Gaussian 09:  ES64L-G09RevD.01 24-Apr-2013

 -----------------------------------------------
 #N MP2/6-311+G(2d,p) geom=checkpoint guess=read
 -----------------------------------------------

 --------
 gly-ser1
 --------
 Structure from the checkpoint file:  "gly-ser14.chk"
 Charge = -1 Multiplicity = 1

                         Standard orientation:
 ---------------------------------------------------------------------
 Center     Atomic      Atomic             Coordinates (Angstroms)
 Number     Number       Type             X           Y           Z
 ---------------------------------------------------------------------
      1          7           0       -2.868555   -1.323285    0.692891
      2          6           0       -2.965060    0.061501    0.226128
      3          6           0       -1.642042    0.657181   -0.273866
      4          8           0       -1.673850    1.706464   -0.921566
      5          1           0       -3.293543    0.682966    1.064294
      6          1           0       -3.682904    0.221816   -0.588276
      7          1           0       -3.734348   -1.624834    1.124547
      8          1           0       -2.668528   -1.957907   -0.073687
      9          7           0       -0.534054   -0.019664    0.044203
     10          6           0        0.790446    0.261389   -0.497613
     11          6           0        1.659148   -1.043703   -0.360655
     12          8           0        2.901504   -0.852654   -0.363496
     13          8           0        1.028453   -2.115306   -0.258007
     14          6           0        1.475308    1.485712    0.132373
     15          8           0        2.190209    1.187961    1.324934
     16          1           0       -0.620271   -0.944889    0.452480
     17          1           0        0.679457    0.467894   -1.568578
     18          1           0        2.154493    1.914841   -0.615283
     19          1           0        0.726181    2.238612    0.380091
     20          1           0        2.780400    0.457935    1.051636
 ---------------------------------------------------------------------

 SCF Done:  E(RHF) =  -603.184004721     A.U. after   14 cycles
 E2 =    -0.1998404733D+01 EUMP2 =    -0.60518240945411D+03

 The electronic state is 1-A.
 Alpha  occ. eigenvalues --  -20.40049 -20.39229 -20.33583 -20.33322 -15.45817
 Alpha  occ. eigenvalues --  -15.44522 -11.22584 -11.17998 -11.16503 -11.13157
 Alpha  occ. eigenvalues --  -11.12287  -1.25224  -1.22236  -1.20016  -1.11956
 Alpha  occ. eigenvalues --   -1.10577  -1.07969  -0.88021  -0.82770  -0.73074
 Alpha  occ. eigenvalues --   -0.64616  -0.61185  -0.56935  -0.55297  -0.54396
 Alpha  occ. eigenvalues --   -0.51711  -0.50794  -0.48532  -0.47738  -0.46317
 Alpha  occ. eigenvalues --   -0.44436  -0.43247  -0.41200  -0.40551  -0.37720
 Alpha  occ. eigenvalues --   -0.35367  -0.31841  -0.30285  -0.29666  -0.25937
 Alpha  occ. eigenvalues --   -0.24988  -0.23875  -0.23633
 Alpha virt. eigenvalues --    0.14638   0.18082   0.18619   0.19086   0.20286
 Alpha virt. eigenvalues --    0.21312   0.22401   0.23752   0.24155   0.24565
 Alpha virt. eigenvalues --    0.25481   0.25939   0.26359   0.28824   0.28964

 Mulliken charges:
               1
     1  N   -0.629941
     2  C   -0.143883
     3  C    0.481443
     4  O   -0.688289
     5  H    0.106062
     6  H    0.107332
     7  H    0.231201
     8  H    0.237729
     9  N   -0.279781
    10  C    0.205138
    11  C    0.604005
    12  O   -0.787695
    13  O   -0.796995
    14  C   -0.003836
    15  O   -0.554111
    16  H    0.332410
    17  H    0.082283
    18  H    0.076947
    19  H    0.101285
    20  H    0.318695
 Sum of Mulliken charges =  -1.00000

 Dipole moment (field-independent basis, Debye):
    X=             -8.4216    Y=              1.1753    Z=              0.4015  Tot=              8.5127
 Quadrupole moment (field-independent basis, Debye-Ang):
   XX=            -86.7427   YY=            -89.3652   ZZ=            -73.6868
   XY=             16.1283   XZ=             -4.6527   YZ=             -0.0786

 Normal termination of Gaussian 09 at Tue Mar 31 17:42:16 2020.
