 Gaussian 09, Revision D.01,
 Gaussian 09:  ES64L-G09RevD.01 24-Apr-2013

 ----------------------------------------------------------------------
 #N M062X/aug-cc-pvdz freq 5d 7f int(grid=ultrafine, exactbasistransfor
 m) scf(conver=10) GEOM=CHECK GUESS=READ
 ----------------------------------------------------------------------

 ------------------------------------
 RTIL FlatRev AnAbove Oxy Awy w/water
 ------------------------------------
 Structure from the checkpoint file:  "FlatRevAnAboveOxyAwyWater.chk"
 Charge =  0 Multiplicity = 1

                         Standard orientation:
 ---------------------------------------------------------------------
 Center     Atomic      Atomic             Coordinates (Angstroms)
 Number     Number       Type             X           Y           Z
 ---------------------------------------------------------------------
      1          6           0        2.624384   -0.987138   -0.015939
      2          1           0        3.343067   -1.724571    0.313873
      3          6           0        2.693302    0.373062   -0.055308
      4          1           0        3.487779    1.051789    0.223823
      5          6           0        0.705400   -0.230726   -0.784514
      6          1           0       -0.339140   -0.150421   -1.072115
      7          7           0        1.486996    0.819163   -0.547304
      8          7           0        1.377695   -1.337974   -0.480500
      9          6           0        0.778538   -2.668440   -0.443164
     10          1           0        0.995118   -3.107556    0.534190
     11          1           0        1.183236   -3.287720   -1.249225
     12          1           0       -0.304503   -2.541163   -0.537311
     13          6           0        1.014678    2.209719   -0.591592
     14          1           0        1.822977    2.814683   -1.016912
     15          1           0        0.149746    2.219359   -1.260105
     16          6           0        0.604218    2.674132    0.797169
     17          1           0        1.446402    2.623941    1.497921
     18          1           0       -0.210305    2.035835    1.154259
     19          1           0        0.251530    3.709781    0.740701
     20          6           0       -2.488342   -0.011723   -0.168881
     21          8           0       -1.878066    1.013751   -0.553628
     22          8           0       -1.930451   -1.060037    0.291369
     23          6           0       -4.008960   -0.033451   -0.248645
     24          1           0       -4.412057   -0.027134    0.771892
     25          1           0       -4.338987   -0.964151   -0.723509
     26          1           0       -4.381697    0.835624   -0.796549
     27          1           0       -0.210540   -0.686893    2.841007
     28          8           0        0.133177   -0.739957    1.945882
     29          1           0       -0.672056   -0.832399    1.368943
 ---------------------------------------------------------------------

 SCF Done:  E(RM062X) =  -649.498410941     A.U. after    2 cycles

 The electronic state is 1-A.
 Alpha  occ. eigenvalues --  -19.59632 -19.55878 -19.55759 -14.85954 -14.85704
 Alpha  occ. eigenvalues --  -10.64328 -10.61698 -10.61604 -10.60950 -10.60433
 Alpha  occ. eigenvalues --  -10.60059 -10.54142 -10.50297  -1.19907  -1.12702
 Alpha  occ. eigenvalues --   -1.08368  -1.07344  -1.02676  -0.91615  -0.87966
 Alpha  occ. eigenvalues --   -0.83140  -0.77901  -0.75662  -0.72376  -0.69826
 Alpha  occ. eigenvalues --   -0.63831  -0.59779  -0.57402  -0.56531  -0.55083
 Alpha  occ. eigenvalues --   -0.54581  -0.54315  -0.52997  -0.51560  -0.50752
 Alpha  occ. eigenvalues --   -0.48401  -0.47722  -0.47397  -0.46930  -0.46011
 Alpha  occ. eigenvalues --   -0.44278  -0.43038  -0.42233  -0.41348  -0.39041
 Alpha  occ. eigenvalues --   -0.37080  -0.35370  -0.33019  -0.29501  -0.28710
 Alpha  occ. eigenvalues --   -0.28111
 Alpha virt. eigenvalues --   -0.01504  -0.00407  -0.00087   0.00793   0.01470
 Alpha virt. eigenvalues --    0.02017   0.02134   0.02539   0.02826   0.03416
 Alpha virt. eigenvalues --    0.03785   0.04307   0.04557   0.05329   0.05584

 Mulliken charges:
               1
     1  C    0.636407
     2  H   -0.660920
     3  C    0.934200
     4  H   -0.601026
     5  C    0.387609
     6  H   -0.853249
     7  N    0.253136
     8  N    0.103570
     9  C    1.422967
    10  H   -0.247655
    11  H   -0.253606
    12  H   -0.415207
    13  C    1.118430
    14  H   -0.609159
    15  H   -0.444155
    16  C    1.012116
    17  H   -0.278631
    18  H   -0.264620
    19  H   -0.279831
    20  C    0.091668
    21  O   -0.575419
    22  O   -0.806110
    23  C    1.064535
    24  H   -0.169885
    25  H   -0.194060
    26  H   -0.326811
    27  H    0.146022
    28  O   -0.488653
    29  H    0.298338
 Sum of Mulliken charges =   0.00000

 Dipole moment (field-independent basis, Debye):
    X=              6.8229    Y=             -0.4429    Z=             -0.7559  Tot=              6.8789
 Quadrupole moment (field-independent basis, Debye-Ang):
   XX=            -76.4226   YY=            -71.3543   ZZ=            -78.1626
   XY=             -0.1004   XZ=             -2.0015   YZ=              2.8734

  Exact polarizability: 144.307  -0.605 142.896   5.281  -1.556 101.463
 Approx polarizability: 156.146   0.559 170.602   8.935  -5.367 129.011

                      1                      2                      3
                      A                      A                      A
 Frequencies --     41.9096                42.2860                46.7596
 Red. masses --      3.0015                 3.8536                 3.2487
 Frc consts  --      0.0031                 0.0041                 0.0042
 IR Inten    --      2.3256                 1.7620                 4.8457

                      4                      5                      6
                      A                      A                      A
 Frequencies --     56.6966                63.0593                79.3950
 Red. masses --      1.2978                 6.5155                 3.7075
 Frc consts  --      0.0025                 0.0153                 0.0138
 IR Inten    --      1.6371                 0.5358                 5.7156

                      7                      8                      9
                      A                      A                      A
 Frequencies --     98.8097               104.4276               122.0215
 Red. masses --      1.3852                 2.3097                 3.9182
 Frc consts  --      0.0080                 0.0148                 0.0344
 IR Inten    --      1.1628                 3.0408                 5.2299

                     10                     11                     12
                      A                      A                      A
 Frequencies --    143.8512               155.2295               181.9265
 Red. masses --      4.4053                 3.5072                 2.4632
 Frc consts  --      0.0537                 0.0498                 0.0480
 IR Inten    --     12.7451                 7.1740                19.8070

                     13                     14                     15
                      A                      A                      A
 Frequencies --    196.3123               221.0339               233.2067
 Red. masses --      1.4410                 1.3850                 2.4492
 Frc consts  --      0.0327                 0.0399                 0.0785
 IR Inten    --      8.3166                52.7947                51.2907

                     16                     17                     18
                      A                      A                      A
 Frequencies --    276.0796               300.9884               402.9266
 Red. masses --      4.0136                 2.1180                 2.9506
 Frc consts  --      0.1802                 0.1130                 0.2822
 IR Inten    --      7.0102                 2.0001                 1.3472

                     19                     20                     21
                      A                      A                      A
 Frequencies --    424.7564               464.0346               501.9177
 Red. masses --      2.6648                 3.0042                 1.1155
 Frc consts  --      0.2833                 0.3811                 0.1656
 IR Inten    --      1.8024                12.4678                72.3037

                     22                     23                     24
                      A                      A                      A
 Frequencies --    616.4125               621.6632               644.6892
 Red. masses --      3.4662                 2.3511                 3.2087
 Frc consts  --      0.7760                 0.5353                 0.7858
 IR Inten    --      1.0166                 7.5964                 7.9723

                     25                     26                     27
                      A                      A                      A
 Frequencies --    650.4317               672.1557               723.1248
 Red. masses --      5.6138                 2.8608                 3.7902
 Frc consts  --      1.3993                 0.7615                 1.1677
 IR Inten    --     56.5656                38.0569                 6.9242

                     28                     29                     30
                      A                      A                      A
 Frequencies --    750.7234               792.1187               849.6683
 Red. masses --      1.2546                 1.1432                 1.1228
 Frc consts  --      0.4166                 0.4226                 0.4776
 IR Inten    --     37.2701                 7.7819                41.8644

                     31                     32                     33
                      A                      A                      A
 Frequencies --    861.9193               899.4261               954.5791
 Red. masses --      1.4072                 1.5060                 3.3443
 Frc consts  --      0.6160                 0.7178                 1.7955
 IR Inten    --      0.0520                56.8467                 8.8718

                     34                     35                     36
                      A                      A                      A
 Frequencies --    973.4289              1016.2824              1051.8818
 Red. masses --      2.0492                 1.4953                 2.5350
 Frc consts  --      1.1441                 0.9099                 1.6526
 IR Inten    --      2.6845                13.8668                 5.0615

                     37                     38                     39
                      A                      A                      A
 Frequencies --   1057.5545              1066.3931              1106.4834
 Red. masses --      2.0301                 2.5435                 1.3450
 Frc consts  --      1.3378                 1.7042                 0.9702
 IR Inten    --      4.9807                 6.4417                15.1102

                     40                     41                     42
                      A                      A                      A
 Frequencies --   1114.4290              1117.2473              1139.6663
 Red. masses --      1.3143                 1.9559                 1.6663
 Frc consts  --      0.9618                 1.4384                 1.2751
 IR Inten    --      2.2404                 4.3448                 1.1304

                     43                     44                     45
                      A                      A                      A
 Frequencies --   1153.2774              1190.2258              1259.0882
 Red. masses --      1.3380                 1.9578                 1.3285
 Frc consts  --      1.0485                 1.6341                 1.2409
 IR Inten    --      2.2052                50.2962                 3.7900

                     46                     47                     48
                      A                      A                      A
 Frequencies --   1301.9776              1342.9944              1365.9585
 Red. masses --      1.2960                 1.3277                 1.2921
 Frc consts  --      1.2944                 1.4110                 1.4204
 IR Inten    --      5.1236                 7.2949                 6.8414

                     49                     50                     51
                      A                      A                      A
 Frequencies --   1397.8773              1403.7396              1431.4093
 Red. masses --      2.4080                 1.8601                 1.7944
 Frc consts  --      2.7724                 2.1596                 2.1662
 IR Inten    --     10.9270                10.7031                 1.5809

                     52                     53                     54
                      A                      A                      A
 Frequencies --   1442.1727              1443.6361              1456.0129
 Red. masses --      1.1135                 1.2320                 1.2434
 Frc consts  --      1.3645                 1.5128                 1.5531
 IR Inten    --     42.1126                25.5097                81.9286

                     55                     56                     57
                      A                      A                      A
 Frequencies --   1460.1400              1463.6375              1467.4312
 Red. masses --      1.1153                 1.0804                 2.2898
 Frc consts  --      1.4010                 1.3636                 2.9051
 IR Inten    --      3.5284                 3.8945               289.2921

                     58                     59                     60
                      A                      A                      A
 Frequencies --   1474.2191              1477.2854              1492.6830
 Red. masses --      1.1885                 1.2533                 1.6452
 Frc consts  --      1.5219                 1.6115                 2.1598
 IR Inten    --     54.2635                13.4184                11.9236

                     61                     62                     63
                      A                      A                      A
 Frequencies --   1511.4782              1626.5586              1640.0038
 Red. masses --      2.5083                 5.5667                 4.8980
 Frc consts  --      3.3763                 8.6774                 7.7617
 IR Inten    --     18.9156               215.7759                94.8071

                     64                     65                     66
                      A                      A                      A
 Frequencies --   1651.4701              1668.8001              3070.1103
 Red. masses --      6.3087                 1.0694                 1.0358
 Frc consts  --     10.1375                 1.7547                 5.7521
 IR Inten    --    281.8890                49.4514                20.5093

                     67                     68                     69
                      A                      A                      A
 Frequencies --   3074.6072              3083.5284              3105.3741
 Red. masses --      1.0354                 1.0321                 1.0633
 Frc consts  --      5.7671                 5.7820                 6.0415
 IR Inten    --     15.2379                36.1273                29.0021

                     70                     71                     72
                      A                      A                      A
 Frequencies --   3149.2400              3151.6402              3174.3349
 Red. masses --      1.0994                 1.1019                 1.1018
 Frc consts  --      6.4241                 6.4489                 6.5414
 IR Inten    --     13.1417                10.2811                 2.2291

                     73                     74                     75
                      A                      A                      A
 Frequencies --   3179.3837              3183.4657              3185.4251
 Red. masses --      1.1042                 1.1042                 1.1063
 Frc consts  --      6.5765                 6.5935                 6.6142
 IR Inten    --     76.7790                83.6521                 1.3893

                     76                     77                     78
                      A                      A                      A
 Frequencies --   3187.0118              3195.4701              3252.6800
 Red. masses --      1.1046                 1.0798                 1.1053
 Frc consts  --      6.6102                 6.4962                 6.8899
 IR Inten    --     27.1261               718.6413               435.8859

                     79                     80                     81
                      A                      A                      A
 Frequencies --   3309.2085              3328.8475              3933.5165
 Red. masses --      1.0927                 1.1115                 1.0663
 Frc consts  --      7.0500                 7.2570                 9.7201
 IR Inten    --      7.1591                 2.2009                49.0136

 - Thermochemistry -
 -------------------
 Temperature   298.150 Kelvin.  Pressure   1.00000 Atm.
 Atom     1 has atomic number  6 and mass  12.00000

 Molecular mass:   188.11609 amu.
 Principal axes and moments of inertia in atomic units:
                           1         2         3
     Eigenvalues --  1829.868743034.520964015.33943
           X            0.99995   0.00820   0.00519
           Y           -0.00827   0.99986   0.01441
           Z           -0.00507  -0.01445   0.99988
 This molecule is an asymmetric top.
 Rotational symmetry number  1.
 Warning -- assumption of classical behavior for rotation
           may cause significant error
 Rotational temperatures (Kelvin)      0.04733     0.02854     0.02157
 Rotational constants (GHZ):           0.98627     0.59474     0.44946
 Zero-point vibrational energy     643135.3 (Joules/Mol)
                                  153.71303 (Kcal/Mol)
 Warning -- explicit consideration of  22 degrees of freedom as
           vibrations may cause significant error
 Vibrational temperatures:     60.30    60.84    67.28    81.57    90.73
          (Kelvin)            114.23   142.16   150.25   175.56   206.97
                              223.34   261.75   282.45   318.02   335.53
                              397.22   433.05   579.72   611.13   667.64
                              722.15   886.88   894.43   927.56   935.82
                              967.08  1040.41  1080.12  1139.68  1222.48
                             1240.11  1294.07  1373.42  1400.55  1462.20
                             1513.42  1521.58  1534.30  1591.98  1603.41
                             1607.47  1639.72  1659.31  1712.47  1811.54
                             1873.25  1932.27  1965.31  2011.23  2019.67
                             2059.48  2074.96  2077.07  2094.88  2100.81
                             2105.85  2111.30  2121.07  2125.48  2147.64
                             2174.68  2340.25  2359.60  2376.09  2401.03
                             4417.20  4423.67  4436.50  4467.94  4531.05
                             4534.50  4567.15  4574.42  4580.29  4583.11
                             4585.39  4597.56  4679.88  4761.21  4789.46
                             5659.45

 Zero-point correction=                           0.244957 (Hartree/Particle)
 Thermal correction to Energy=                    0.261938
 Thermal correction to Enthalpy=                  0.262882
 Thermal correction to Gibbs Free Energy=         0.198622
 Sum of electronic and zero-point Energies=           -649.253454
 Sum of electronic and thermal Energies=              -649.236473
 Sum of electronic and thermal Enthalpies=            -649.235529
 Sum of electronic and thermal Free Energies=         -649.299789

                     E (Thermal)             CV                S
                      KCal/Mol        Cal/Mol-Kelvin    Cal/Mol-Kelvin
 Total                  164.369             57.681            135.248
 Electronic               0.000              0.000              0.000
 Translational            0.889              2.981             41.602
 Rotational               0.889              2.981             31.478
 Vibrational            162.591             51.720             62.168
 Vibration     1          0.595              1.980              5.167
 Vibration     2          0.595              1.980              5.149
 Vibration     3          0.595              1.979              4.950
 Vibration     4          0.596              1.975              4.569
 Vibration     5          0.597              1.972              4.359
 Vibration     6          0.600              1.963              3.906
 Vibration     7          0.604              1.950              3.478
 Vibration     8          0.605              1.946              3.370
 Vibration     9          0.610              1.931              3.068
 Vibration    10          0.616              1.909              2.752
 Vibration    11          0.620              1.897              2.607
 Vibration    12          0.630              1.864              2.309
 Vibration    13          0.636              1.845              2.167
 Vibration    14          0.648              1.809              1.951
 Vibration    15          0.654              1.790              1.854
 Vibration    16          0.678              1.718              1.558
 Vibration    17          0.693              1.672              1.411
 Vibration    18          0.768              1.464              0.952
 Vibration    19          0.787              1.416              0.876
 Vibration    20          0.822              1.330              0.754
 Vibration    21          0.857              1.246              0.653
 Vibration    22          0.976              0.997              0.422

 Optimization completed.
    -- Stationary point found.

 1\1\GINC-NODE10\Freq\RM062X\Aug-CC-pVDZ\C8H16N2O3\ROOT\17-Mar-2020\0\\
 #N M062X/aug-cc-pvdz freq 5d 7f int(grid=ultrafine, exactbasistransfor
 m) scf(conver=10) GEOM=CHECK GUESS=READ\\RTIL FlatRev AnAbove Oxy Awy
 w/water\\0,1\C,-2.7622289337,0.4725034445,0.0455333032\H,-3.605528241,
 1.0442468694,0.4075343042\C,-2.5685348288,-0.872909468,-0.0482153681\H
 ,-3.2142475882,-1.702334966,0.206511465\C,-0.7425814316,0.1305017602,-
 0.7603345254\H,0.2944836537,0.2642409227,-1.0550176886\N,-1.3047091694
 ,-1.0587361156,-0.5624652074\N,-1.6118340697,1.0747825139,-0.409425019

 Normal termination of Gaussian 09 at Tue Mar 17 13:14:01 2020.
