 Gaussian 09, Revision D.01,
 Gaussian 09:  ES64L-G09RevD.01 24-Apr-2013

 ----------------------------------------------------------------------
 #N M062X/aug-cc-pvdz OPT(tight) 5d 7f int(grid=ultrafine, exactbasistr
 ansform) scf(conver=10)
 ----------------------------------------------------------------------

 -------
 Acetate
 -------
 Symbolic Z-matrix:
 Charge = -1 Multiplicity = 3

 SCF Done:  E(UM062X) =  -228.298316303     A.U. after   28 cycles
 SCF Done:  E(UM062X) =  -228.311670979     A.U. after   23 cycles
 SCF Done:  E(UM062X) =  -228.312567419     A.U. after   24 cycles
 SCF Done:  E(UM062X) =  -228.312640543     A.U. after   25 cycles
 SCF Done:  E(UM062X) =  -228.312668821     A.U. after   25 cycles
 SCF Done:  E(UM062X) =  -228.312670325     A.U. after   22 cycles
 SCF Done:  E(UM062X) =  -228.312670521     A.U. after   19 cycles
 SCF Done:  E(UM062X) =  -228.312670524     A.U. after   18 cycles
 Optimization completed.
    -- Stationary point found.

                         Standard orientation:
 ---------------------------------------------------------------------
 Center     Atomic      Atomic             Coordinates (Angstroms)
 Number     Number       Type             X           Y           Z
 ---------------------------------------------------------------------
      1          6           0        0.062694   -1.386148    0.000000
      2          6           0       -0.313125    0.083561    0.000000
      3          8           0        0.062694    0.816849   -1.043164
      4          8           0        0.062694    0.816849    1.043164
      5          1           0       -0.337182   -1.880404    0.894985
      6          1           0        1.173845   -1.493257    0.000000
      7          1           0       -0.337182   -1.880404   -0.894985
 ---------------------------------------------------------------------

 The electronic state is 3-A".
 Alpha  occ. eigenvalues --  -19.44198 -19.44194 -10.41797 -10.36870  -0.98164
 Alpha  occ. eigenvalues --   -0.86132  -0.63743  -0.42698  -0.34050  -0.32870
 Alpha  occ. eigenvalues --   -0.32717  -0.26709  -0.25975  -0.17782  -0.17554
 Alpha  occ. eigenvalues --   -0.15754   0.02546
 Alpha virt. eigenvalues --    0.13749   0.14460   0.16017   0.18556   0.22053
 Alpha virt. eigenvalues --    0.22248   0.23800   0.26288   0.26424   0.27786
 Alpha virt. eigenvalues --    0.32270   0.33098   0.35584   0.36174   0.36710

  Beta  occ. eigenvalues --  -19.42832 -19.42831 -10.41341 -10.36771  -0.93916
  Beta  occ. eigenvalues --   -0.80800  -0.62826  -0.39494  -0.31357  -0.30568
  Beta  occ. eigenvalues --   -0.28737  -0.24786  -0.20459  -0.11910  -0.11357
  Beta virt. eigenvalues --    0.11579   0.13151   0.15800   0.16468   0.16886
  Beta virt. eigenvalues --    0.19553   0.20894   0.20963   0.22732   0.23619
  Beta virt. eigenvalues --    0.25342   0.27956   0.29899   0.30340   0.33892

 Mulliken charges and spin densities:
               1          2
     1  C    0.900799  -0.217857
     2  C    0.392126   0.680034
     3  O   -0.639955   0.604371
     4  O   -0.639955   0.604371
     5  H   -0.276720   0.013666
     6  H   -0.459574   0.301748
     7  H   -0.276720   0.013666
 Sum of Mulliken charges =  -1.00000   2.00000

 Dipole moment (field-independent basis, Debye):
    X=              0.0099    Y=             -2.5883    Z=              0.0000  Tot=              2.5883
 Quadrupole moment (field-independent basis, Debye-Ang):
   XX=            -31.8831   YY=            -34.1838   ZZ=            -33.0368
   XY=              0.7630   XZ=              0.0000   YZ=              0.0000

 Normal termination of Gaussian 09 at Fri Apr 10 14:18:19 2020.
