 Gaussian 09, Revision D.01,
 Gaussian 09:  ES64L-G09RevD.01 24-Apr-2013

 ----------------------------------------------------------------------
 #N M062X/aug-cc-pvdz OPT(tight) 5d 7f int(grid=ultrafine, exactbasistr
 ansform) scf(conver=10)
 ----------------------------------------------------------------------

 ------------------------------------
 RTIL FlatRev AnAbove Oxy Awy w/water
 ------------------------------------
 Symbolic Z-matrix:
 Charge =  0 Multiplicity = 1

 SCF Done:  E(RM062X) =  -649.496563364     A.U. after   18 cycles
 SCF Done:  E(RM062X) =  -649.456299293     A.U. after   19 cycles
 SCF Done:  E(RM062X) =  -649.496459714     A.U. after   16 cycles
 SCF Done:  E(RM062X) =  -649.496832560     A.U. after   13 cycles
 SCF Done:  E(RM062X) =  -649.496816416     A.U. after   17 cycles
 SCF Done:  E(RM062X) =  -649.496951694     A.U. after   13 cycles
 SCF Done:  E(RM062X) =  -649.493559025     A.U. after   17 cycles
 SCF Done:  E(RM062X) =  -649.496971716     A.U. after   13 cycles
 SCF Done:  E(RM062X) =  -649.497044487     A.U. after   16 cycles
 SCF Done:  E(RM062X) =  -649.497042494     A.U. after   16 cycles
 SCF Done:  E(RM062X) =  -649.498410852     A.U. after   13 cycles
 SCF Done:  E(RM062X) =  -649.498410906     A.U. after   12 cycles
 SCF Done:  E(RM062X) =  -649.498410921     A.U. after   12 cycles
 SCF Done:  E(RM062X) =  -649.498410933     A.U. after   10 cycles
 SCF Done:  E(RM062X) =  -649.498410934     A.U. after   11 cycles
 SCF Done:  E(RM062X) =  -649.498410936     A.U. after   11 cycles
 SCF Done:  E(RM062X) =  -649.498410938     A.U. after   11 cycles
 SCF Done:  E(RM062X) =  -649.498410940     A.U. after   11 cycles
 SCF Done:  E(RM062X) =  -649.498410942     A.U. after   10 cycles
 SCF Done:  E(RM062X) =  -649.498410941     A.U. after    9 cycles
 Optimization completed.
    -- Stationary point found.

                         Standard orientation:
 ---------------------------------------------------------------------
 Center     Atomic      Atomic             Coordinates (Angstroms)
 Number     Number       Type             X           Y           Z
 ---------------------------------------------------------------------
      1          6           0        2.624384   -0.987138   -0.015939
      2          1           0        3.343067   -1.724571    0.313873
      3          6           0        2.693302    0.373062   -0.055308
      4          1           0        3.487779    1.051789    0.223823
      5          6           0        0.705400   -0.230726   -0.784514
      6          1           0       -0.339140   -0.150421   -1.072115
      7          7           0        1.486996    0.819163   -0.547304
      8          7           0        1.377695   -1.337974   -0.480500
      9          6           0        0.778538   -2.668440   -0.443164
     10          1           0        0.995118   -3.107556    0.534190
     11          1           0        1.183236   -3.287720   -1.249225
     12          1           0       -0.304503   -2.541163   -0.537311
     13          6           0        1.014678    2.209719   -0.591592
     14          1           0        1.822977    2.814683   -1.016912
     15          1           0        0.149746    2.219359   -1.260105
     16          6           0        0.604218    2.674132    0.797169
     17          1           0        1.446402    2.623941    1.497921
     18          1           0       -0.210305    2.035835    1.154259
     19          1           0        0.251530    3.709781    0.740701
     20          6           0       -2.488342   -0.011723   -0.168881
     21          8           0       -1.878066    1.013751   -0.553628
     22          8           0       -1.930451   -1.060037    0.291369
     23          6           0       -4.008960   -0.033451   -0.248645
     24          1           0       -4.412057   -0.027134    0.771892
     25          1           0       -4.338987   -0.964151   -0.723509
     26          1           0       -4.381697    0.835624   -0.796549
     27          1           0       -0.210540   -0.686893    2.841007
     28          8           0        0.133177   -0.739957    1.945882
     29          1           0       -0.672056   -0.832399    1.368943
 ---------------------------------------------------------------------

 The electronic state is 1-A.
 Alpha  occ. eigenvalues --  -19.59632 -19.55878 -19.55759 -14.85954 -14.85704
 Alpha  occ. eigenvalues --  -10.64328 -10.61698 -10.61604 -10.60950 -10.60433
 Alpha  occ. eigenvalues --  -10.60059 -10.54142 -10.50297  -1.19907  -1.12702
 Alpha  occ. eigenvalues --   -1.08368  -1.07344  -1.02676  -0.91615  -0.87966
 Alpha  occ. eigenvalues --   -0.83140  -0.77901  -0.75662  -0.72376  -0.69826
 Alpha  occ. eigenvalues --   -0.63831  -0.59779  -0.57402  -0.56531  -0.55083
 Alpha  occ. eigenvalues --   -0.54581  -0.54315  -0.52997  -0.51560  -0.50752
 Alpha  occ. eigenvalues --   -0.48401  -0.47722  -0.47397  -0.46930  -0.46011
 Alpha  occ. eigenvalues --   -0.44278  -0.43038  -0.42233  -0.41348  -0.39041
 Alpha  occ. eigenvalues --   -0.37080  -0.35370  -0.33019  -0.29501  -0.28710
 Alpha  occ. eigenvalues --   -0.28111
 Alpha virt. eigenvalues --   -0.01504  -0.00407  -0.00087   0.00793   0.01470
 Alpha virt. eigenvalues --    0.02017   0.02134   0.02539   0.02826   0.03416
 Alpha virt. eigenvalues --    0.03785   0.04307   0.04557   0.05329   0.05584

 Mulliken charges:
               1
     1  C    0.636407
     2  H   -0.660920
     3  C    0.934200
     4  H   -0.601026
     5  C    0.387609
     6  H   -0.853249
     7  N    0.253136
     8  N    0.103570
     9  C    1.422967
    10  H   -0.247655
    11  H   -0.253606
    12  H   -0.415207
    13  C    1.118430
    14  H   -0.609159
    15  H   -0.444155
    16  C    1.012116
    17  H   -0.278631
    18  H   -0.264620
    19  H   -0.279831
    20  C    0.091668
    21  O   -0.575419
    22  O   -0.806110
    23  C    1.064535
    24  H   -0.169885
    25  H   -0.194060
    26  H   -0.326811
    27  H    0.146022
    28  O   -0.488653
    29  H    0.298338
 Sum of Mulliken charges =   0.00000

 Dipole moment (field-independent basis, Debye):
    X=              6.8229    Y=             -0.4429    Z=             -0.7559  Tot=              6.8789
 Quadrupole moment (field-independent basis, Debye-Ang):
   XX=            -76.4226   YY=            -71.3543   ZZ=            -78.1626
   XY=             -0.1004   XZ=             -2.0015   YZ=              2.8734

 Normal termination of Gaussian 09 at Sun Mar  8 00:45:27 2020.
